20
Lattice="3.549 0.0 0.0 1.3633044072019755 5.103237985172127 0.0 0.35276448037117664 1.5448560525892414 9.295297809008963" Properties=species:S:1:pos:R:3:forces:R:3 energy=-4554.712769935985 energy_unit=eV force_unit=eVperAnstrom length_unit=Angstrom kpts="6 4 3" name crystal=WETGAE frame=0 pbc="T T T"
O        2.02312000       5.14665000       8.33983000       0.00103696      -0.01740519      -0.00528151
O        3.24139000       1.50498000       0.95734500       0.00424216      -0.01735464      -0.00118144
O        3.78983000       5.16709000       7.00368000       0.00266048       0.00637094       0.00200116
O        1.47589000       1.48008000       2.29292000      -0.00487235       0.00590037      -0.00369057
C        1.19211000       4.59081000       7.60062000      -0.01251664      -0.00378144      -0.00135354
C        4.07440000       2.05806000       1.69639000      -0.00081186      -0.00519296      -0.00527930
C        1.32438000       3.12357000       7.32355000      -0.01118533      -0.01352241      -0.00298926
C        3.94244000       3.52474000       1.97145000      -0.00626146       0.00961788       0.00582144
N        2.25042000       2.40973000       7.83079000      -0.00491906       0.00048798      -0.00455194
N        3.01492000       4.23670000       1.46462000       0.00094263       0.01582550      -0.00162208
N        0.41467800       2.55219000       6.57338000      -0.00283916      -0.00059027       0.00454750
N        4.85187000       4.09716000       2.72072000      -0.01353110      -0.00918887      -0.00424976
H        2.78121000       2.77377000       8.63105000       0.01394746      -0.00669947      -0.00138909
H        2.48047000       3.87485000       0.66598600       0.00747682      -0.00794810      -0.00622834
H        2.25505000       1.34633000       7.62757000      -0.00127826       0.02236824      -0.00203658
H        3.01078000       5.29825000       1.66709000       0.00000215       0.00814022       0.00293038
H       -0.16194500       3.15012000       5.99969000       0.00684453       0.01323727       0.00146462
H        5.42528000       3.49582000       3.29452000       0.00379395       0.01589929       0.00757051
H        0.49478100       1.56012000       6.34200000       0.00823941      -0.00174164       0.00918537
H        4.76962000       5.08990000       2.94978000       0.00902863      -0.01442260       0.00633232
20
Lattice="3.549 0.0 0.0 1.3633044072019755 5.103237985172127 0.0 0.35276448037117664 1.5448560525892414 9.295297809008963" Properties=species:S:1:pos:R:3:forces:R:3 energy=-4554.148814003207 name energy_unit=eV force_unit=eVperAnstrom length_unit=Angstrom kpts="6 4 3" crystal=WETGAE frame=10 pbc="T T T"
O        1.92656000       5.16795000       8.36906000      -0.36745744      -1.21622950      -1.36700927
O        3.27764000       1.51044000       1.01515000      -0.92159650      -0.46687017      -0.99486266
O        3.76698000       5.13299000       6.97579000      -1.30370357       0.36655292      -0.79114387
O        1.50207000       1.49556000       2.37677000      -1.52027787       1.09879693      -1.67458006
C        1.14604000       4.55900000       7.55326000       2.23006690       1.40948904       2.39111052
C        4.08985000       2.10274000       1.71427000       2.39069400      -2.09158214       2.31800377
C        1.36874000       3.12640000       7.27091000      -0.86687828      -1.33618689      -0.74383043
C        3.93391000       3.52197000       2.00293000       0.21302464       1.18447123       0.12637692
N        2.30584000       2.39665000       7.77803000      -1.42465340       1.74009177      -0.77371179
N        2.98294000       4.20389000       1.47197000       0.66249101       0.87222104      -0.46929883
N        0.46041300       2.56040000       6.48784000       1.58079650      -1.49634090       1.09518710
N        4.83780000       4.11548000       2.75255000      -0.68905565      -1.02492400      -1.09080080
H        2.76424000       2.82101000       8.56286000       0.84928165       0.10345553       0.87798545
H        2.56107000       3.78141000       0.62587100      -0.39540327       0.12542407       0.35386761
H        2.27450000       1.37301000       7.62974000       0.04181195      -1.12155120      -0.13834232
H        3.03297000       5.29534000       1.51899000      -0.09632175      -0.79619866       0.64661188
H       -0.22770800       3.11119000       6.06124000      -0.64043609       0.94046840      -0.73512467
H        5.46554000       3.51539000       3.25209000       0.08316593      -0.09030537       0.37348564
H        0.53241600       1.55776000       6.22384000       0.00028407       0.62538999       0.27057416
H        4.67216000       5.06885000       2.99095000       0.17416499       1.17382686       0.32550115
20
Lattice="3.549 0.0 0.0 1.3633044072019755 5.103237985172127 0.0 0.35276448037117664 1.5448560525892414 9.295297809008963" Properties=species:S:1:pos:R:3:forces:R:3 energy=-4553.967776665655 name energy_unit=eV force_unit=eVperAnstrom length_unit=Angstrom kpts="6 4 3" crystal=WETGAE frame=20 pbc="T T T"
O        2.06789000       5.17952000       8.30616000       0.23840348       0.22239940       0.71644818
O        3.23007000       1.40283000       1.04010000      -0.06763235       0.02315453      -0.44059195
O        3.81204000       5.19836000       6.99141000       0.92313402      -0.91092128       0.31702422
O        1.48425000       1.44214000       2.38186000      -1.70758788       1.30116332      -1.11007893
C        1.23747000       4.61060000       7.60972000      -1.22082663      -0.11864716      -1.05155034
C        4.06911000       2.01020000       1.71613000       1.03941988      -0.06776348       1.49959078
C        1.35438000       3.12995000       7.30768000      -0.98736532       0.46136184      -0.89278472
C        3.88257000       3.50982000       1.95221000       2.23570276       0.45386861       1.89116465
N        2.24173000       2.38397000       7.78908000       0.55689580      -1.65735367      -0.93838581
N        2.93986000       4.24710000       1.49110000       0.48725027      -2.60866184      -0.41585228
N        0.44838700       2.65431000       6.44118000       0.04663621       0.44261952       0.70955762
N        4.84237000       4.11686000       2.74628000      -2.44765936      -2.32369105      -2.18124679
H        2.81179000       2.54729000       8.61888000       0.01162956       0.75288585       0.04292806
H        2.35794000       3.93865000       0.69615400       0.40003743      -0.12768150       0.11747885
H        2.30860000       1.25728000       7.40625000      -0.21047719       0.78887101       0.46415765
H        2.86528000       5.22819000       1.75738000       0.53186354       1.93267768       0.45206987
H       -0.15882300       3.38167000       6.03597000       0.50703440      -0.58116702       0.11901688
H        5.40139000       3.59485000       3.41026000      -0.23945455      -0.36304234      -0.27803344
H        0.47176100       1.70218000       6.02326000       0.11987614       0.62440269       0.58014886
H        4.63041000       5.05044000       2.97853000      -0.21687975       1.75551839       0.39893957
20
Lattice="3.549 0.0 0.0 1.3633044072019755 5.103237985172127 0.0 0.35276448037117664 1.5448560525892414 9.295297809008963" Properties=species:S:1:pos:R:3:forces:R:3 energy=-4554.122663863212 name energy_unit=eV force_unit=eVperAnstrom length_unit=Angstrom kpts="6 4 3" crystal=WETGAE frame=30 pbc="T T T"
O        2.16133000       5.20068000       8.25427000      -0.80078036      -0.06588452       0.23027520
O        3.20668000       1.43403000       1.01369000      -0.33738941      -0.52908161      -0.24162096
O        3.85544000       5.29320000       7.01478000      -0.23462962       0.05616832      -1.12804066
O        1.44338000       1.32894000       2.34493000      -0.14894298       0.71589282       0.19256997
C        1.26752000       4.69557000       7.53938000       0.76420385      -1.12845718       0.89502158
C        4.04136000       1.92992000       1.77669000       0.10442227       1.28746962      -0.23412363
C        1.32594000       3.19550000       7.27099000       0.02984953       1.60516027       0.34374004
C        3.89701000       3.45365000       2.00020000       0.87090977      -1.36755949       0.73980922
N        2.24612000       2.48301000       7.76849000       0.74835557       0.91850604       1.25200383
N        3.00617000       4.14572000       1.46970000      -2.22322262      -0.39358961      -1.41212699
N        0.38593200       2.67319000       6.54895000       2.19999013      -4.10329553       1.03333150
N        4.75362000       4.06625000       2.75946000       1.58321334      -3.02760767       0.06877958
H        2.71423000       2.85802000       8.63251000      -0.09217970      -0.40721235      -0.87983664
H        2.45950000       3.71235000       0.70339700       0.12292598       0.49596066       0.18109874
H        2.32867000       1.43994000       7.53840000      -0.26832804      -0.37949431       0.19497035
H        2.94334000       5.18374000       1.68831000       0.09873910       0.39651450      -0.05799895
H       -0.15364900       3.25961000       6.02224000      -1.66220791       1.45145458      -1.80328948
H        5.34508000       3.40773000       3.25945000       0.09870157       0.53475860       0.26217899
H        0.51927200       1.61404000       6.37441000      -0.69431098       1.94853624      -0.10719700
H        4.63788000       4.99143000       3.05059000      -0.15931532       1.99176677       0.47045531
20
Lattice="3.549 0.0 0.0 1.3633044072019755 5.103237985172127 0.0 0.35276448037117664 1.5448560525892414 9.295297809008963" Properties=species:S:1:pos:R:3:forces:R:3 energy=-4553.878332846545 name energy_unit=eV force_unit=eVperAnstrom length_unit=Angstrom kpts="6 4 3" crystal=WETGAE frame=49 pbc="T T T"
O        1.95530000       5.22182000       8.21070000      -1.63334985      -1.05225482      -2.33849546
O        3.29803000       1.50378000       1.01129000       0.36292510       0.61525984       0.64950180
O        3.73313000       5.13207000       6.77995000      -0.78614050       1.33941105      -0.32467582
O        1.49937000       1.46085000       2.36878000       1.29535777       0.30004003       1.06109942
C        1.12896000       4.64239000       7.39802000       2.05847661      -1.09593787       2.82728788
C        4.13943000       2.04965000       1.76877000      -1.79811128       0.47532396      -1.60758739
C        1.25711000       3.11195000       7.26438000       0.00224330       0.62654699      -0.08035160
C        4.04787000       3.54617000       2.03875000      -1.24168342      -0.42746441       0.14378946
N        2.15938000       2.42732000       7.85262000       0.17133729      -0.23795920      -0.82308726
N        3.11824000       4.30837000       1.62665000      -1.04224295      -2.97950747      -1.62659299
N        0.37757000       2.46219000       6.54384000      -0.00639521       0.77194801       0.32180030
N        4.89243000       4.04662000       2.86788000       0.37486376       2.56778644       0.67410725
H        2.76062000       2.79273000       8.57612000       0.08311502       0.18232875       0.46966701
H        2.49198000       3.85500000       0.94258900       0.41770708       0.83866814       0.00983077
H        2.10449000       1.40409000       7.65520000       0.26079676      -0.39858630       0.31379029
H        3.02087000       5.29781000       1.94968000       0.05456087       1.23157898      -0.32846203
H       -0.19171100       3.07456000       5.94730000       0.09347400      -0.83991255       0.24352358
H        5.53147000       3.37799000       3.17420000       1.42214915      -0.73435334       1.23672633
H        0.40388600       1.42362000       6.55898000      -0.15179639       0.68400600      -0.43559887
H        4.88600000       5.08086000       3.15639000       0.06270766      -1.86692943      -0.38627431
20
Lattice="3.549 0.0 0.0 1.3633044072019755 5.103237985172127 0.0 0.35276448037117664 1.5448560525892414 9.295297809008963" Properties=species:S:1:pos:R:3:forces:R:3 energy=-4553.918660117589 name energy_unit=eV force_unit=eVperAnstrom length_unit=Angstrom kpts="6 4 3" crystal=WETGAE frame=50 pbc="T T T"
O        1.95734000       5.18497000       8.17907000      -0.12563336      -0.19892060      -0.83751629
O        3.29538000       1.50293000       1.05122000      -0.01987231       0.35695037      -0.15486988
O        3.73667000       5.12956000       6.76638000       0.84188202       0.19218019       0.70029651
O        1.49691000       1.47436000       2.37821000       1.51639551       0.35868278       1.09882264
C        1.15719000       4.61125000       7.40622000      -1.26484392      -0.53653781       0.33200861
C        4.14150000       2.06717000       1.76753000      -1.66096350       0.46774537      -1.18810677
C        1.23252000       3.08337000       7.28994000       0.63676969       0.87219018      -0.53783879
C        4.04621000       3.55977000       1.99675000       0.66497470       0.26940533       2.29178366
N        2.15464000       2.41336000       7.87549000      -0.05508640      -0.78558514      -0.71416504
N        3.11598000       4.32609000       1.61421000      -0.71225214      -0.40956953      -0.79545818
N        0.36513900       2.45908000       6.51799000       1.18599332       0.79830182       1.92618821
N        4.89272000       4.08107000       2.88437000       1.61173716      -1.67609187      -0.07453011
H        2.87324000       2.76684000       8.51594000      -0.85149280       0.09700567       0.15498507
H        2.45967000       3.93860000       0.94520400       0.11175608       0.17423698      -0.29999837
H        2.00875000       1.37812000       7.75982000       0.67062598      -0.15442766       0.10833395
H        3.01273000       5.41422000       1.96652000       0.30067200      -0.38484169      -0.61492046
H       -0.17695100       3.07169000       5.95637000      -0.83310427       0.20759601      -0.54115037
H        5.68878000       3.50958000       3.21562000      -1.24594117       0.34643095      -0.32371012
H        0.37917600       1.45078000       6.48159000      -0.15625931      -0.48896623      -0.42065459
H        4.97263000       5.05358000       3.15132000      -0.61535755       0.49421642      -0.10948734
20
Lattice="3.549 0.0 0.0 1.3633044072019755 5.103237985172127 0.0 0.35276448037117664 1.5448560525892414 9.295297809008963" Properties=species:S:1:pos:R:3:forces:R:3 energy=-4554.049247549261 name energy_unit=eV force_unit=eVperAnstrom length_unit=Angstrom kpts="6 4 3" crystal=WETGAE frame=70 pbc="T T T"
O        2.05539000       4.98245000       8.29100000      -1.06895157      -0.86277480      -1.34667699
O        3.20028000       1.73013000       1.08101000       0.10267906      -0.08866089      -0.49197442
O        3.84105000       4.87653000       6.87368000       0.07016386       1.08661505       0.69299972
O        1.43242000       1.72841000       2.40406000       0.91681939      -0.80465759       0.07099536
C        1.24786000       4.37396000       7.53049000       0.61151118      -0.19975518       0.71176877
C        4.07432000       2.29992000       1.76150000      -0.98129752      -0.43627096       0.43796120
C        1.35858000       2.88280000       7.24830000      -0.23388091       0.85661444      -0.06525614
C        3.90793000       3.75078000       2.06340000       1.35422060      -1.36950838       0.10238030
N        2.28716000       2.14815000       7.73285000      -0.08862593      -0.22452878       0.77294560
N        2.97860000       4.39014000       1.53082000      -2.33735903       1.45433936      -2.01691730
N        0.42096500       2.38687000       6.45583000       1.47525272      -0.78124512       0.98253165
N        4.80560000       4.33786000       2.80249000      -1.32569164       2.41184389      -0.39850762
H        2.72369000       2.49648000       8.64676000      -0.18828137      -0.42257160      -1.45192253
H        2.49188000       4.01660000       0.64549600       0.60760310       0.30550311       1.57097489
H        2.27884000       1.04060000       7.47685000       0.08198220       0.75507129       0.15867615
H        2.88155000       5.42473000       1.76195000       0.31348741       0.37162519      -0.13754271
H       -0.07909820       3.07895000       5.87639000       0.21543839      -0.79905258       0.26745901
H        5.37726000       3.77563000       3.36822000       0.76540713      -0.71195903       0.88338991
H        0.58391200       1.36833000       6.27639000      -0.72496367       0.89921248      -0.49411101
H        4.64826000       5.37241000       3.01294000       0.43448507      -1.43984348      -0.24917126
20
Lattice="3.549 0.0 0.0 1.3633044072019755 5.103237985172127 0.0 0.35276448037117664 1.5448560525892414 9.295297809008963" Properties=species:S:1:pos:R:3:forces:R:3 energy=-4553.997409862798 name energy_unit=eV force_unit=eVperAnstrom length_unit=Angstrom kpts="6 4 3" crystal=WETGAE frame=80 pbc="T T T"
O        2.00493000       4.90163000       8.29247000       0.72512823       0.92113885       0.53687205
O        3.24267000       1.76257000       0.91952400      -0.23366083      -0.30588620      -0.06551891
O        3.79259000       5.02393000       6.94426000      -0.31399340      -0.12479158      -0.06180161
O        1.46709000       1.71027000       2.31358000      -0.76429641       0.21997433      -1.11877440
C        1.18228000       4.42292000       7.51908000      -0.01050964      -1.52345576      -0.35298418
C        4.06934000       2.28818000       1.66916000       1.15406537      -0.24131243       1.77467825
C        1.37477000       2.90450000       7.24939000      -1.94044241       1.82976156      -1.18118022
C        3.92306000       3.73836000       2.05554000      -0.82933504      -0.44951676       0.02687188
N        2.28986000       2.27847000       7.80978000       2.39566137      -2.06573227       1.23602185
N        2.91273000       4.41137000       1.59399000       1.25771168      -1.71795971      -1.80635424
N        0.49951200       2.21713000       6.52059000       0.37811106       0.49140004      -0.40799859
N        4.78976000       4.25529000       2.90047000      -0.05675813      -0.86258454      -0.97752314
H        2.92263000       2.67944000       8.53974000      -0.96002935      -0.07114808      -0.48124675
H        2.43621000       3.93958000       0.73158100       0.76836904       0.95382785       1.57063036
H        2.33097000       1.18759000       7.62961000      -0.01411387       0.49512813       0.01364227
H        3.00264000       5.44501000       1.63791000      -0.40952788       1.00936368       0.38502270
H       -0.04486260       2.74267000       5.81971000       0.35412832      -0.41517711       0.57170021
H        5.54230000       3.65941000       3.26542000      -1.02927430       0.42162184      -0.18201662
H        0.81296200       1.24794000       6.27607000      -0.56292761       0.70195744       0.24740903
H        4.72412000       5.23451000       3.12939000       0.09169582       0.73339689       0.27254876
20
Lattice="3.549 0.0 0.0 1.3633044072019755 5.103237985172127 0.0 0.35276448037117664 1.5448560525892414 9.295297809008963" Properties=species:S:1:pos:R:3:forces:R:3 energy=-4553.773895554868 name energy_unit=eV force_unit=eVperAnstrom length_unit=Angstrom kpts="6 4 3" crystal=WETGAE frame=99 pbc="T T T"
O        2.00349000       4.94651000       8.36262000      -2.10015934      -0.57841594      -2.19078558
O        3.29525000       1.65483000       1.00945000       0.51088128       0.48952622       0.60066626
O        3.75125000       4.94654000       6.87115000       1.67329451       0.03698784       2.28414234
O        1.56187000       1.69327000       2.34887000      -1.33045847       0.26916262      -0.25522416
C        1.14570000       4.41213000       7.57423000       0.32878187       0.55436584       0.10769066
C        4.10736000       2.23671000       1.76219000       0.69827562       0.18725447      -0.06071352
C        1.23128000       2.92828000       7.30920000       1.32538311       0.11814939       0.77767129
C        3.97761000       3.77422000       2.01574000       0.40610729      -2.50636279      -0.68432482
N        2.14770000       2.16052000       7.82554000      -0.83811792       1.15385968      -0.46463074
N        3.08774000       4.47143000       1.42284000       1.16669977      -0.00572487       1.68559981
N        0.34756300       2.43801000       6.50091000      -0.63566926       0.70965018       0.44271260
N        4.91710000       4.24873000       2.79010000      -1.01893333       2.35736736      -0.98405888
H        2.61596000       2.43659000       8.69445000       0.23180141       0.57466213      -0.35397457
H        2.50480000       4.11518000       0.67923600      -0.14269777      -0.30434200      -0.45643920
H        2.16255000       1.12117000       7.63823000      -0.37379675      -0.29022870      -0.62410444
H        3.24542000       5.50123000       1.62103000      -0.92494408       0.61737329      -0.17153423
H       -0.27505600       2.97891000       5.92325000       0.23059761       0.77238510       0.35168629
H        5.39031000       3.53680000       3.32410000       0.55019037       0.05239548       0.05532551
H        0.31719400       1.49734000       6.27291000       0.32707055      -2.75970901      -0.33277171
H        5.03386000       5.30237000       2.89795000      -0.08430750      -1.44835383       0.27306967
20
Lattice="3.549 0.0 0.0 1.3633044072019755 5.103237985172127 0.0 0.35276448037117664 1.5448560525892414 9.295297809008963" Properties=species:S:1:pos:R:3:forces:R:3 energy=-4553.903503376718 name energy_unit=eV force_unit=eVperAnstrom length_unit=Angstrom kpts="6 4 3" crystal=WETGAE frame=100 pbc="T T T"
O        1.99527000       4.93170000       8.34732000      -0.78368767       0.35432835      -0.86289307
O        3.34021000       1.69072000       1.01270000      -2.34640932      -1.57231186      -2.20191332
O        3.73761000       4.95928000       6.89728000       1.79604926      -0.26233068       2.26685424
O        1.56751000       1.70591000       2.33475000      -0.76180758      -0.17302856      -0.16182318
C        1.16048000       4.41250000       7.58876000      -1.33664969      -0.00929228      -1.13156821
C        4.11373000       2.23669000       1.73835000       2.93708941       2.20337370       2.27626962
C        1.23963000       2.93055000       7.32532000      -1.04118879      -0.24656468      -1.23486485
C        3.98155000       3.74697000       2.01121000       0.73210106       0.10850261      -0.06742512
N        2.12846000       2.15251000       7.82481000      -0.88446977       0.03324226      -0.83933663
N        3.08176000       4.45482000       1.43845000       0.05372526      -0.43499260       0.13030865
N        0.31105700       2.42921000       6.50133000       1.32806734      -2.54503218       1.38763980
N        4.93561000       4.27300000       2.77449000      -0.83093426      -2.77516134      -0.75975070
H        2.65463000       2.52539000       8.61741000       0.20883477      -0.18313968       0.00845831
H        2.55292000       4.01181000       0.65202400       0.29607127       0.46359047       0.70963476
H        2.00871000       1.04209000       7.57407000       0.92478467       0.81209836       0.17821962
H        3.11078000       5.53428000       1.59976000      -0.15148271      -0.24540974       0.23410511
H       -0.23810800       3.01654000       5.89468000      -0.03345005       0.26506428       0.18846392
H        5.38198000       3.45210000       3.27173000      -0.02377396       1.48146964      -0.42777449
H        0.31177200       1.36250000       6.33988000      -0.01905712       1.97418557       0.04293305
H        4.95833000       5.22782000       3.07951000      -0.06380707       0.75141518       0.26445904
44
Lattice="6.6604 0.0 0.0 -1.9016531446419103 6.428112286470541 0.0 -1.2514063926874133 -2.2750363427377365 12.652321829591736" Properties=species:S:1:pos:R:3:forces:R:3 energy=-14302.429185648707 energy_unit=eV force_unit=eVperAnstrom length_unit=Angstrom kpts="4 3 2" name crystal=COVSEM frame=0 pbc="T T T"
N       -2.10781000       4.14157000       8.23142000      -0.00528285      -0.00008150       0.00338993
N        5.61516000       0.01149850       4.42090000       0.00510283       0.00011858      -0.00342169
N        2.94458000       3.53473000       6.81278000      -0.00167876      -0.00476051      -0.00019830
N        0.56276400       0.61833500       5.83954000       0.00181871       0.00488240       0.00020377
N        4.14582000       3.60605000       6.10032000      -0.00031166       0.00207279       0.00239113
N       -0.63847600       0.54702200       6.55201000       0.00042463      -0.00208512      -0.00237107
N       -1.32727000       4.55736000       9.27272000       0.00122129       0.00114195      -0.00168966
N        4.83461000      -0.40428400       3.37961000      -0.00134817      -0.00123926       0.00148556
N       -0.10794100      -1.49487000      10.26550000       0.00766261      -0.00053151       0.00245414
N        3.61528000       5.64794000       2.38679000      -0.00769953       0.00049470      -0.00254534
N        0.70221700      -1.11074000      11.30080000       0.00165949       0.00286007      -0.00155214
N        2.80512000       5.26381000       1.35154000      -0.00166707      -0.00284339       0.00152013
N        2.44068000       1.88191000       0.69653500      -0.00158319      -0.00194419      -0.00034735
N        1.06665000       2.27116000      11.95580000       0.00161436       0.00196660       0.00040543
N        2.38326000      -0.64630300      12.65710000      -0.00382120      -0.00024682      -0.00286528
N        1.12407000       4.79938000      -0.00474388       0.00401081       0.00026068       0.00291123
N       -0.21034700       4.10380000       6.73503000       0.00215183      -0.00012099       0.00213230
N        3.71769000       0.04928010       5.91730000      -0.00219621       0.00010134      -0.00215678
N        0.15372800       3.88200000       5.56163000       0.00432243       0.00185584       0.00153216
N        3.35361000       0.27107200       7.09070000      -0.00422848      -0.00185488      -0.00169331
N        0.61380900       3.72061000       4.53098000       0.00142186       0.00172799      -0.00063261
N        2.89353000       0.43247000       8.12135000      -0.00146498      -0.00172460       0.00072065
N        2.31844000       3.72566000       9.15348000       0.00270527      -0.00247697      -0.00093396
N        1.18890000       0.42740900       3.49883000      -0.00287218       0.00240244       0.00105762
N        1.37156000       2.91150000       8.98770000       0.00395927      -0.00157178      -0.00281550
N        2.13578000       1.24158000       3.66462000      -0.00322703       0.00214907       0.00272387
N        0.47774100       2.20840000       9.03724000       0.00406855       0.00021633       0.00138437
N        3.02960000       1.94468000       3.61508000      -0.00459440      -0.00064379      -0.00134110
N        0.07374670       1.66892000       0.05168720      -0.00063073       0.00148833       0.00081753
N        3.43360000       2.48416000      12.60060000       0.00036806      -0.00142823      -0.00069314
N       -0.29771000       2.12702000       1.15506000       0.00346891       0.00238938       0.00207561
N        3.80504000       2.02606000      11.49730000      -0.00293358      -0.00273951      -0.00281498
N       -0.78275100       2.52123000       2.10840000      -0.00040548       0.00124346       0.00156724
N        4.29009000       1.63184000      10.54390000       0.00006312      -0.00099095      -0.00101192
C       -1.57035000       3.93650000       6.96195000      -0.00083122      -0.00150032       0.00477367
C        5.07769000       0.21657400       5.69037000       0.00083368       0.00149927      -0.00475394
C        3.18943000       3.82709000       8.07560000      -0.00368889       0.00117381      -0.00098713
C        0.31791300       0.32599200       4.57672000       0.00365211      -0.00131527       0.00109381
C        0.19604800      -0.67586700      12.51810000      -0.00117277      -0.00103700      -0.00012319
C        3.31129000       4.82894000       0.13422000       0.00111437       0.00107604       0.00023297
C        2.08549000      -1.06791000      11.44780000      -0.00289611       0.00075695      -0.00287753
C        1.42184000       5.22098000       1.20451000       0.00293070      -0.00074386       0.00294882
H        2.78304000      -1.33714000      10.66360000       0.00178443      -0.00266285       0.00438313
H        0.72430700       5.49021000       1.98872000      -0.00182488       0.00266529      -0.00437913
44
Lattice="6.6604 0.0 0.0 -1.9016531446419103 6.428112286470541 0.0 -1.2514063926874133 -2.2750363427377365 12.652321829591736" Properties=species:S:1:pos:R:3:forces:R:3 energy=-14300.964668963443 name energy_unit=eV force_unit=eVperAnstrom length_unit=Angstrom kpts="4 3 2" crystal=COVSEM frame=10 pbc="T T T"
N       -2.08548000       4.14209000       8.18700000      -0.65055081       0.50559664       2.64323803
N        5.70399000      -0.01543850       4.43366000      -1.22881248      -0.62278803      -1.42040080
N        2.94259000       3.44419000       6.88590000      -0.49458666       0.35346549      -0.99530489
N        0.64980200       0.75037600       5.76278000      -0.64616450      -0.66877993       0.85718523
N        4.11606000       3.53996000       6.10994000       0.29462220      -0.52832570       0.44241743
N       -0.53916800       0.64831200       6.51196000       0.00753174       0.33836438      -0.20059798