125
Lattice="18.205 0.0 0.0 0.0 18.205 0.0 0.0 0.0 18.205" Properties=species:S:1:pos:R:3:momenta:R:3 energy=-2.5512869358062744 pbc="T T T"
Ar      17.90471162       0.16689132       0.76911655       0.18003776      -0.09686082      -0.25596255
Ar      17.49314701       0.57491917       5.47661286      -0.25399444      -0.30364409      -0.68232280
Ar       0.78305076      16.35164857       7.51837589       0.61785144       0.04401042      -0.01744248
Ar       0.32221532      16.97479193      11.03844997      -0.25046412       0.17467977      -0.24956991
Ar      17.76674192       0.88566206      15.19213277      -0.12098656      -0.55512003      -0.01805211
Ar       1.94900518       2.87416467      17.88799366      -0.45137239      -0.50760736      -1.17101436
Ar       0.89398410       3.28314616       3.13827263      -0.04805211      -1.12715335      -0.56122696
Ar       2.70449622       3.40628591       6.46009436       0.09947785       0.40427415       0.03722755
Ar       0.10998372       2.98446121       8.74530730       0.28070868      -0.89746941       0.49110839
Ar      17.18887159       4.42886134      15.59747271      -0.85136776      -0.27790189      -0.03414809
Ar       0.54238731       6.52394621      17.52682626       0.58076785       0.15555258       1.03525407
Ar       1.71272284       7.52738259       2.59305012      -0.54784494       1.46670268      -0.97207937
Ar       3.40906837       6.44501804       8.01503246      -0.30258998       0.87844551      -0.65456405
Ar      17.72931260       5.77614165      11.79740688      -0.44477798       1.23622871      -0.12890187
Ar      16.72602790       7.85399300      14.52120041      -0.30132409      -0.92700410      -1.32628240
Ar      17.38722058      11.22355499      15.91089113      -0.20822928      -0.70314591       1.12321163
Ar      17.76739600      12.36274425       1.60734801      -0.32266049      -0.66196221      -0.40809655
Ar       1.27564267       9.41347076       6.86688156      -0.75718726      -0.04110177       0.90798477
Ar       0.51143479      10.94584291       9.94649518      -0.08490226      -0.92339102      -0.43042325
Ar       0.61901419      12.71206159      13.07124662       0.82711971       0.09395039       0.05936395
Ar       1.18229557      14.00066533      17.15023640      -0.10010892       0.64203019      -0.95484498
Ar      16.49263609      15.52956799       4.17179308      -0.11504004       0.20575738      -0.50699936
Ar       0.31089705      13.10094004       6.62771291       0.10844036      -0.02391882      -1.26222272
Ar      17.28415533      13.99710872       9.67862842       0.84034771       0.70888655       0.53542369
Ar      15.79784760      14.09748930      13.22390300       0.14594898       0.52174665       0.09010476
Ar       3.10123300      17.84040533       0.78730144      -0.03796787       0.82355355       0.34305789
Ar       2.66225174      17.98684287       4.83497116       0.21390272       0.54639487       1.18480380
Ar       4.06239576      18.00259435       8.06697009      -0.44100110       0.48320388       0.02990220
Ar       4.01752141       0.01304218      11.92534216       0.62558795      -0.60171282      -0.58933671
Ar       3.71559487       1.24939548      15.04742897       0.33336680      -0.80802651      -0.52625724
Ar       4.86190561       2.43979611       2.37622470       0.45321143      -0.14465789       0.12436315
Ar       4.90824928       5.39165595       4.58798211       0.58606179      -0.51506965      -0.43253058
Ar       5.52135491       4.46163033       9.48719092      -0.87054037       0.02864091       1.30125909
Ar       1.26769035       3.08340431      12.90226618      -0.78063141      -0.46460335      -0.01321183
Ar       3.18196307       5.00816021      15.57333587       0.16005578      -0.61826891      -0.62896846
Ar       4.87142002       5.50954936       0.59493969       0.49292587      -0.82157353      -0.88597168
Ar       5.10411443       9.05346537       1.30419052       0.08829162       0.52535483       0.38572445
Ar       4.83818682       8.99631483       5.05792530       0.69810067       0.20565274      -0.12649446
Ar       3.23101991       6.21633037      12.09149104      -0.16059396       0.94124506       0.29025433
Ar       1.89869392       8.31588640      14.85884802       0.48736106       0.22475489       0.86845447
Ar       1.64784444      10.08102803      18.13691935      -1.15296792       0.09617023      -1.29535732
Ar       2.51854882      12.09352481       4.16835408      -0.71922540       0.41962995       0.92191020
Ar       4.29829574      11.27704881       7.70423464      -0.36243471       0.39730538       0.34268028
Ar       3.70289203      11.07474182      11.50795214      -1.08568286       0.81476601       0.47922016
Ar       3.46125415      11.87460792      15.54034512       0.26730083      -0.40567680       0.61622822
Ar       4.58744841      14.58617703      18.08748076       0.67879885       0.24906882      -0.14344416
Ar       1.29500609      15.24246367       2.38246623       0.27096544      -0.00377222       0.75237823
Ar       3.80349879      14.72276501       6.50668446      -0.15609601       0.26189449       1.00564665
Ar       3.24529010      14.50095612      10.33329437      -0.20836984       0.36483017      -0.64226543
Ar       1.68359511      16.03094188      14.24562143      -0.57633663      -0.68613835       0.05784277
Ar       7.09254336      17.79929097      16.57457194       0.92434196       0.99130290       0.24145718
Ar       5.50875191      16.30816728       3.13428912       0.95680667      -0.46503917      -0.12316645
Ar       6.27492981       2.41339627       6.22769259       0.30407495       0.28144747      -0.79507687
Ar       7.06790494      16.55283926      10.86236889       0.21055897       1.62387477       0.15431103
Ar       8.17797093       1.12706365      12.83303938       0.67701248       0.54961067       0.46456725
Ar       7.62916916       3.94127170      17.32235284       0.26955459       0.02056216      -0.12983840
Ar       8.61930063       2.87579962       2.70344996      -0.23123674       0.08910712       0.12733015
Ar       9.52293400       4.44316983       9.21751207       0.50628472      -0.48017488       0.54322637
Ar       7.62026265       1.61099290       9.23273009       0.33129775      -0.37974205       0.29826903
Ar       5.26720203       3.23648969      12.76697942      -0.01312019      -0.55606881      -0.20688838
Ar       8.04411969       7.62823562      17.77133107      -0.31488087       0.03721226      -0.35943512
Ar       7.91463294       7.11907077       3.43442969      -0.20821982      -0.21765354       1.17046897
Ar       7.51370301       6.96929365       7.22374172      -0.32196686      -0.14516309      -0.36556155
Ar       6.05538628       8.72850692      11.13027030       0.10993523      -0.47650276      -0.65118567
Ar       7.66449140       5.97712181      14.25108460       0.19565564       0.32160507       0.53305982
Ar       8.99905168      10.37796326       2.87748531       0.17892441       0.47190521      -0.04603644
Ar       8.30511489      10.34156052       6.62050145      -0.49600169      -0.71453244       1.09476914
Ar       7.10436814      13.67536979       8.73991764       0.39214393      -0.23612871       0.21438126
Ar       5.62026964       8.87642902      15.09367806      -0.26650144      -0.85833991       0.12891942
Ar       6.73901866      11.65470687      17.27571445      -0.25106576       1.08385029      -0.53043515
Ar       8.09517772      15.11077405       0.86136923       0.85028635       1.37859217      -0.10320492
Ar       5.95011137      12.54583075       3.46461604      -0.07507828      -0.25670318      -0.82448245
Ar       7.46110154      17.35561885       6.96451560       0.47447068       0.80043064       0.41962126
Ar       6.68318940      12.14930398      13.83373732      -0.27971307      -0.50311589      -0.12910986
Ar       5.37303498      15.45871327      14.52143376      -0.49695421       1.11488083      -0.41462691
Ar      10.27120272       0.20595889       0.31785054       0.47189687      -0.74110519       0.06923546
Ar       9.63089524      17.40389032       4.03486032       0.59421671       0.56805591      -0.03871141
Ar      11.08215562       1.08328878       8.17086694      -0.22587321       0.89482261       0.95805272
Ar      10.97336695      16.74537202      11.51493786      -1.05626466       0.01507072      -0.10823145
Ar      10.93974684      17.98018972      14.75540264      -0.45318574       0.04095362      -0.53583823
Ar      11.40005673       4.74485115      17.80436099       0.02827449       0.72823274      -0.38590225
Ar      12.01394847       2.03722057       2.55706818      -1.21626998      -0.13443114      -0.41065435
Ar      13.01858751       5.04851117       7.42266525       1.03457166      -1.06952565       0.06759814
Ar      11.78315787       2.14706351      11.09669924       0.70981950       1.01640298       0.43047748
Ar      10.59141860       4.03188202      13.73592615      -1.40484493       0.44817854       0.77343382
Ar      11.41840581       8.16384770       1.27439624      -0.39443798      -0.26269581       0.24400854
Ar      11.23836592       5.05825956       4.11019429       0.55251887      -0.91713898       0.89622902
Ar      11.07955330       8.45327944       7.56670322       0.18776499      -0.17884840       0.07330788
Ar      10.18297153       6.96674722      11.69802170      -0.15912976      -1.65317949      -0.00545819
Ar      11.13912333       7.13965748      15.50599840      -0.03750529      -0.31264099      -0.31551851
Ar      10.29472445      12.37023184      16.79089295       1.32836541      -0.40357424      -0.07457732
Ar      12.12600792      10.83470058       4.00575812      -0.73354697      -1.43084822      -0.13767726
Ar      11.99550075      11.67409359       7.55729443      -0.40434658      -0.06261041       0.41041942
Ar       9.32968888      10.44050321      10.25433351       0.08423195      -0.82254240       0.05911637
Ar       9.94418063      10.21199465      13.82268861       0.37024548       1.13384252      -0.29437070
Ar      12.01143352      15.26085669      17.67904703      -0.83958870      -0.69454217       0.35938970
Ar       9.82400726      13.87235236       3.52998204       0.11929921      -0.23031911      -0.09234462
Ar      10.26587292      15.38149901       7.12798931       0.36959116      -0.75489093       0.78111952
Ar       9.71294196      13.45110148      11.78595237       0.85710449      -1.01670376       0.48718285
Ar       9.11296533      15.17018163      15.18611200      -0.20066597      -0.33449701      -0.82682835
Ar      14.55806411       0.31708158       0.47440820      -0.73410704      -1.54099959      -0.40748859
Ar      13.26112091      16.85081520       3.30491483       0.66299408      -0.22763017       0.20336709
Ar      13.56090903       1.03341340       5.86053377      -0.92911859      -0.00005574       1.10995267
Ar      15.60577912      18.19466390       8.64927786       0.32270131       0.54765298      -0.46281100
Ar      14.56043824      17.19127050      11.90665247       0.25187867       0.13819885      -0.20137653
Ar      15.67349350       3.62913729       0.19001720      -0.18783372       0.32546098      -1.38400911
Ar      15.28176235       3.98433116       5.19548778      -0.30814239       0.19035637      -0.09623905
Ar      18.17278315       5.73674452       6.46591067       0.26372929       0.91574593      -0.05570961
Ar      14.72345352       3.46066633      10.11606859       0.07726319       0.53089013       0.69067376
Ar      14.06457701       2.58890744      15.20370096       0.34569738       0.05435093      -0.12753540
Ar      14.15986255       7.82751831      16.98726244      -0.86682641      -0.06606535      -0.30418241
Ar      16.60259396       8.88993071       2.31263262      -0.44581828      -0.46146196       0.54245583
Ar      14.35055218       8.16784315       5.54718763      -0.89429788       0.88394316      -0.08011823
Ar      15.14783404       7.29824503       8.89733733      -0.06385973      -0.70916284      -0.17132714
Ar      14.09182291       6.04242725      13.02150740       0.87327963      -0.35379383       0.08672481
Ar      13.89817892      11.33376838       0.53118096      -0.31040792       0.64102807      -0.10087115
Ar      15.54343272      11.85931608       4.30017453      -0.21314464       0.66404310      -0.55536696
Ar      15.51134398      11.00076263       7.72519496       0.05869886      -0.53301669       0.53098273
Ar      15.62965531      10.67406618      11.38862607      -0.29479149      -0.15342164      -0.66399691
Ar      13.37593740      10.25816226      14.07915379      -0.00202251      -0.35092326       0.03804156
Ar      15.32014577      14.24349657      16.92826387       0.80082859      -0.02923827      -0.23885969
Ar      12.87249416      14.26500188       5.36380242       0.40443580       0.01514650       0.61935989
Ar      14.30141210      14.90347265       8.62338421       0.11275652       0.36084096      -1.41592995
Ar      12.90335863      12.47643960      10.95525732       0.61873317       0.12303634       0.60581277
Ar      12.29843847      14.24451483      14.20500534       0.12464331       0.93544225       0.67824654
